
Host: localhost.localdomain

Timers On : Mon Feb 15 16:37:48 2021
Timers Off: Mon Feb 15 16:38:21 2021

Wall Time:       33.39 seconds

                                                       Time (seconds)
Module                                       User      System        Wall        Calls

--------------------------------------------------------------------------------------

**************************************************************************************

Host: localhost.localdomain

Timers On : Mon Feb 15 16:38:22 2021
Timers Off: Mon Feb 15 16:38:32 2021

Wall Time:       10.15 seconds

                                                       Time (seconds)
Module                                       User      System        Wall        Calls

--------------------------------------------------------------------------------------

**************************************************************************************

Host: localhost.localdomain

Timers On : Mon Feb 15 16:38:32 2021
Timers Off: Mon Feb 15 16:38:56 2021

Wall Time:       24.31 seconds

                                                       Time (seconds)
Module                                       User      System        Wall        Calls

--------------------------------------------------------------------------------------

**************************************************************************************

Host: localhost.localdomain

Timers On : Mon Feb 15 16:38:57 2021
Timers Off: Mon Feb 15 16:39:06 2021

Wall Time:        9.14 seconds

                                                       Time (seconds)
Module                                       User      System        Wall        Calls

--------------------------------------------------------------------------------------

**************************************************************************************

Host: localhost.localdomain

Timers On : Mon Feb 15 16:39:06 2021
Timers Off: Mon Feb 15 16:39:17 2021

Wall Time:       11.18 seconds

                                                       Time (seconds)
Module                                       User      System        Wall        Calls

--------------------------------------------------------------------------------------

**************************************************************************************

Host: localhost.localdomain

Timers On : Mon Feb 15 16:39:18 2021
Timers Off: Mon Feb 15 16:39:45 2021

Wall Time:       27.35 seconds

                                                       Time (seconds)
Module                                       User      System        Wall        Calls

--------------------------------------------------------------------------------------

**************************************************************************************

Host: localhost.localdomain

Timers On : Mon Feb 15 16:39:45 2021
Timers Off: Mon Feb 15 16:40:11 2021

Wall Time:       25.29 seconds

                                                       Time (seconds)
Module                                       User      System        Wall        Calls

--------------------------------------------------------------------------------------

**************************************************************************************

Host: localhost.localdomain

Timers On : Mon Feb 15 16:40:11 2021
Timers Off: Mon Feb 15 16:41:33 2021

Wall Time:       81.85 seconds

                                                       Time (seconds)
Module                                       User      System        Wall        Calls

--------------------------------------------------------------------------------------

**************************************************************************************

Host: localhost.localdomain

Timers On : Mon Feb 15 16:41:33 2021
Timers Off: Mon Feb 15 16:42:04 2021

Wall Time:       30.34 seconds

                                                       Time (seconds)
Module                                       User      System        Wall        Calls

--------------------------------------------------------------------------------------

**************************************************************************************

Host: localhost.localdomain

Timers On : Mon Feb 15 16:42:04 2021
Timers Off: Mon Feb 15 16:42:06 2021

Wall Time:        2.06 seconds

                                                       Time (seconds)
Module                                       User      System        Wall        Calls

--------------------------------------------------------------------------------------

**************************************************************************************

Host: localhost.localdomain

Timers On : Mon Feb 15 16:42:06 2021
Timers Off: Mon Feb 15 16:42:09 2021

Wall Time:        3.07 seconds

                                                       Time (seconds)
Module                                       User      System        Wall        Calls

--------------------------------------------------------------------------------------

**************************************************************************************

Host: localhost.localdomain

Timers On : Mon Feb 15 16:42:10 2021
Timers Off: Mon Feb 15 16:42:29 2021

Wall Time:       19.24 seconds

                                                       Time (seconds)
Module                                       User      System        Wall        Calls

--------------------------------------------------------------------------------------

**************************************************************************************

Host: localhost.localdomain

Timers On : Mon Feb 15 16:42:29 2021
Timers Off: Mon Feb 15 16:42:44 2021

Wall Time:       14.31 seconds

                                                       Time (seconds)
Module                                       User      System        Wall        Calls

--------------------------------------------------------------------------------------

**************************************************************************************

Host: localhost.localdomain

Timers On : Mon Feb 15 16:42:44 2021
Timers Off: Mon Feb 15 16:42:54 2021

Wall Time:       10.42 seconds

                                                       Time (seconds)
Module                                       User      System        Wall        Calls
DFH: sparsity prep                  :      0.017u      0.000s      0.009w      1 calls
DFH: initialize()                   :      0.033u      0.000s      0.026w      1 calls
DFH: AO Construction                :      0.000u      0.000s      0.000w      1 calls
DFH: AO-Met. Contraction            :      0.000u      0.000s      0.000w      1 calls
HF: Form core H                     :      0.000u      0.000s      0.000w      1 calls
HF: Form S/X                        :      0.000u      0.000s      0.000w      1 calls
HF: Guess                           :      0.100u      0.000s      0.052w      1 calls
SAD Guess                           :      0.083u      0.000s      0.046w      1 calls
HF: Form G                          :      0.050u      0.000s      0.029w      9 calls
JK: D                               :      0.000u      0.000s      0.000w      9 calls
JK: USO2AO                          :      0.000u      0.000s      0.000w      9 calls
JK: JK                              :      0.050u      0.000s      0.029w      9 calls
DFH: compute_JK()                   :      0.000u      0.000s      0.000w      6 calls
DFH: Grabbing AOs                   :      0.000u      0.000s      0.000w      6 calls
DFH: compute_J                      :      0.000u      0.000s      0.000w      6 calls
DFH: compute_K                      :      0.000u      0.000s      0.000w      6 calls
JK: AO2USO                          :      0.000u      0.000s      0.000w      9 calls
HF: Form F                          :      0.000u      0.000s      0.000w      9 calls
HF: Form D                          :      0.000u      0.000s      0.000w      9 calls
HF: DIIS                            :      0.000u      0.000s      0.003w      8 calls
DIISManager::add_entry              :      0.000u      0.000s      0.000w      8 calls
DIISManager::extrapolate            :      0.000u      0.000s      0.000w      8 calls
bMatrix setup                       :      0.000u      0.000s      0.000w      8 calls
bMatrix pseudoinverse               :      0.000u      0.000s      0.000w      8 calls
New vector                          :      0.000u      0.000s      0.000w      8 calls
HF: Form C                          :      0.000u      0.000s      0.000w      8 calls
ccenergy                            :      0.050u      0.100s      0.100w      1 calls
F build                             :      0.000u      0.017s      0.001w     10 calls
Wmbej build                         :      0.000u      0.017s      0.001w     10 calls
C->Wmbej                            :      0.000u      0.000s      0.000w     10 calls
F->Wmbej                            :      0.000u      0.000s      0.000w     10 calls
E->Wmbej                            :      0.000u      0.000s      0.000w     10 calls
X->Wmbej                            :      0.000u      0.017s      0.000w     10 calls
Z                                   :      0.000u      0.000s      0.000w     10 calls
T2 Build                            :      0.000u      0.000s      0.004w     10 calls
BT2                                 :      0.000u      0.000s      0.002w     10 calls
ABCD:new                            :      0.000u      0.000s      0.002w     10 calls
ABCD:S                              :      0.000u      0.000s      0.000w     10 calls
ABCD:A                              :      0.000u      0.000s      0.000w     10 calls
ABCD:axpy                           :      0.000u      0.000s      0.001w     10 calls
FT2                                 :      0.000u      0.000s      0.000w     10 calls
WmbejT2                             :      0.000u      0.000s      0.000w     10 calls
CT2                                 :      0.000u      0.000s      0.001w     10 calls
cctriples                           :      0.017u      0.000s      0.009w      1 calls
ET_RHF                              :      0.017u      0.000s      0.000w      1 calls

--------------------------------------------------------------------------------------
DFH: sparsity prep                  :      0.017u      0.000s      0.009w      1 calls
DFH: initialize()                   :      0.033u      0.000s      0.026w      1 calls
| DFH: AO Construction              :      0.000u      0.000s      0.000w      1 calls
| DFH: AO-Met. Contraction          :      0.000u      0.000s      0.000w      1 calls
HF: Form core H                     :      0.000u      0.000s      0.000w      1 calls
HF: Form S/X                        :      0.000u      0.000s      0.000w      1 calls
HF: Guess                           :      0.100u      0.000s      0.052w      1 calls
| SAD Guess                         :      0.083u      0.000s      0.046w      1 calls
HF: Form G                          :      0.050u      0.000s      0.029w      9 calls
| JK: D                             :      0.000u      0.000s      0.000w      9 calls
| JK: USO2AO                        :      0.000u      0.000s      0.000w      9 calls
| JK: JK                            :      0.050u      0.000s      0.029w      9 calls
| | DFH: compute_JK()               :      0.000u      0.000s      0.000w      6 calls
| | | DFH: Grabbing AOs             :      0.000u      0.000s      0.000w      6 calls
| | | DFH: compute_J                :      0.000u      0.000s      0.000w      6 calls
| | | DFH: compute_K                :      0.000u      0.000s      0.000w      6 calls
| JK: AO2USO                        :      0.000u      0.000s      0.000w      9 calls
HF: Form F                          :      0.000u      0.000s      0.000w      9 calls
HF: Form D                          :      0.000u      0.000s      0.000w      9 calls
HF: DIIS                            :      0.000u      0.000s      0.003w      8 calls
| DIISManager::add_entry            :      0.000u      0.000s      0.000w      8 calls
| DIISManager::extrapolate          :      0.000u      0.000s      0.000w      8 calls
| | bMatrix setup                   :      0.000u      0.000s      0.000w      8 calls
| | bMatrix pseudoinverse           :      0.000u      0.000s      0.000w      8 calls
| | New vector                      :      0.000u      0.000s      0.000w      8 calls
HF: Form C                          :      0.000u      0.000s      0.000w      8 calls
ccenergy                            :      0.050u      0.100s      0.100w      1 calls
| F build                           :      0.000u      0.017s      0.001w     10 calls
| Wmbej build                       :      0.000u      0.017s      0.001w     10 calls
| | C->Wmbej                        :      0.000u      0.000s      0.000w     10 calls
| | F->Wmbej                        :      0.000u      0.000s      0.000w     10 calls
| | E->Wmbej                        :      0.000u      0.000s      0.000w     10 calls
| | X->Wmbej                        :      0.000u      0.017s      0.000w     10 calls
| Z                                 :      0.000u      0.000s      0.000w     10 calls
| T2 Build                          :      0.000u      0.000s      0.004w     10 calls
| | BT2                             :      0.000u      0.000s      0.002w     10 calls
| | | ABCD:new                      :      0.000u      0.000s      0.002w     10 calls
| | | | ABCD:S                      :      0.000u      0.000s      0.000w     10 calls
| | | | ABCD:A                      :      0.000u      0.000s      0.000w     10 calls
| | | | ABCD:axpy                   :      0.000u      0.000s      0.001w     10 calls
| | FT2                             :      0.000u      0.000s      0.000w     10 calls
| | WmbejT2                         :      0.000u      0.000s      0.000w     10 calls
| | CT2                             :      0.000u      0.000s      0.001w     10 calls
cctriples                           :      0.017u      0.000s      0.009w      1 calls
| ET_RHF                            :      0.017u      0.000s      0.000w      1 calls

**************************************************************************************

Host: localhost.localdomain

Timers On : Mon Feb 15 16:42:55 2021
Timers Off: Mon Feb 15 17:30:29 2021

Wall Time:     2854.55 seconds

                                                       Time (seconds)
Module                                       User      System        Wall        Calls
DFH: sparsity prep                  :      0.050u      0.000s      0.027w      2 calls
DFH: initialize()                   :      0.100u      0.000s      0.068w      2 calls
DFH: AO Construction                :      0.017u      0.000s      0.008w      2 calls
DFH: AO-Met. Contraction            :      0.000u      0.000s      0.001w      2 calls
HF: Form core H                     :      0.017u      0.000s      0.001w      2 calls
HF: Form S/X                        :      0.000u      0.000s      0.000w      2 calls
HF: Guess                           :      0.267u      0.017s      0.168w      2 calls
SAD Guess                           :      0.250u      0.017s      0.156w      2 calls
HF: Form G                          :      0.617u      0.000s      0.371w    115 calls
JK: D                               :      0.000u      0.000s      0.001w    115 calls
JK: USO2AO                          :      0.000u      0.000s      0.000w    115 calls
JK: JK                              :      0.617u      0.000s      0.368w    115 calls
DFH: compute_JK()                   :      0.017u      0.000s      0.015w    110 calls
DFH: Grabbing AOs                   :      0.000u      0.000s      0.000w    110 calls
DFH: compute_J                      :      0.000u      0.000s      0.002w    110 calls
DFH: compute_K                      :      0.017u      0.000s      0.011w    110 calls
JK: AO2USO                          :      0.000u      0.000s      0.000w    115 calls
HF: Form F                          :      0.000u      0.000s      0.001w    115 calls
HF: Form D                          :      0.000u      0.000s      0.000w    115 calls
HF: DIIS                            :      0.083u      0.000s      0.045w    113 calls
DIISManager::add_entry              :      0.000u      0.000s      0.001w    113 calls
DIISManager::extrapolate            :      0.050u      0.000s      0.005w    113 calls
bMatrix setup                       :      0.000u      0.000s      0.001w    113 calls
bMatrix pseudoinverse               :      0.033u      0.000s      0.003w    113 calls
New vector                          :      0.017u      0.000s      0.001w    113 calls
HF: Form C                          :      0.017u      0.000s      0.007w    113 calls
ccenergy                            :      0.233u      0.250s      0.286w      1 calls
F build                             :      0.000u      0.000s      0.010w     19 calls
Wmbej build                         :      0.017u      0.033s      0.024w     19 calls
C->Wmbej                            :      0.000u      0.000s      0.001w     19 calls
F->Wmbej                            :      0.017u      0.017s      0.011w     19 calls
E->Wmbej                            :      0.000u      0.000s      0.003w     19 calls
X->Wmbej                            :      0.000u      0.000s      0.007w     19 calls
Z                                   :      0.017u      0.000s      0.003w     19 calls
T2 Build                            :      0.033u      0.050s      0.057w     19 calls
BT2                                 :      0.017u      0.017s      0.028w     19 calls
ABCD:new                            :      0.017u      0.017s      0.028w     19 calls
ABCD:S                              :      0.000u      0.000s      0.005w     19 calls
ABCD:A                              :      0.017u      0.000s      0.004w     19 calls
ABCD:axpy                           :      0.000u      0.017s      0.016w     19 calls
FT2                                 :      0.000u      0.017s      0.003w     19 calls
WmbejT2                             :      0.000u      0.000s      0.009w     19 calls
CT2                                 :      0.017u      0.017s      0.010w     19 calls
cctriples                           :      0.017u      0.000s      0.026w      1 calls
ET_RHF                              :      0.017u      0.000s      0.017w      1 calls

--------------------------------------------------------------------------------------
DFH: sparsity prep                  :      0.050u      0.000s      0.027w      2 calls
DFH: initialize()                   :      0.100u      0.000s      0.068w      2 calls
| DFH: AO Construction              :      0.017u      0.000s      0.008w      2 calls
| DFH: AO-Met. Contraction          :      0.000u      0.000s      0.001w      2 calls
HF: Form core H                     :      0.017u      0.000s      0.001w      2 calls
HF: Form S/X                        :      0.000u      0.000s      0.000w      2 calls
HF: Guess                           :      0.267u      0.017s      0.168w      2 calls
| SAD Guess                         :      0.250u      0.017s      0.156w      2 calls
HF: Form G                          :      0.617u      0.000s      0.371w    115 calls
| JK: D                             :      0.000u      0.000s      0.001w    115 calls
| JK: USO2AO                        :      0.000u      0.000s      0.000w    115 calls
| JK: JK                            :      0.617u      0.000s      0.368w    115 calls
| | DFH: compute_JK()               :      0.017u      0.000s      0.015w    110 calls
| | | DFH: Grabbing AOs             :      0.000u      0.000s      0.000w    110 calls
| | | DFH: compute_J                :      0.000u      0.000s      0.002w    110 calls
| | | DFH: compute_K                :      0.017u      0.000s      0.011w    110 calls
| JK: AO2USO                        :      0.000u      0.000s      0.000w    115 calls
HF: Form F                          :      0.000u      0.000s      0.001w    115 calls
HF: Form D                          :      0.000u      0.000s      0.000w    115 calls
HF: DIIS                            :      0.083u      0.000s      0.045w    113 calls
| DIISManager::add_entry            :      0.000u      0.000s      0.001w    113 calls
| DIISManager::extrapolate          :      0.050u      0.000s      0.005w    113 calls
| | bMatrix setup                   :      0.000u      0.000s      0.001w    113 calls
| | bMatrix pseudoinverse           :      0.033u      0.000s      0.003w    113 calls
| | New vector                      :      0.017u      0.000s      0.001w    113 calls
HF: Form C                          :      0.017u      0.000s      0.007w    113 calls
ccenergy                            :      0.233u      0.250s      0.286w      1 calls
| F build                           :      0.000u      0.000s      0.010w     19 calls
| Wmbej build                       :      0.017u      0.033s      0.024w     19 calls
| | C->Wmbej                        :      0.000u      0.000s      0.001w     19 calls
| | F->Wmbej                        :      0.017u      0.017s      0.011w     19 calls
| | E->Wmbej                        :      0.000u      0.000s      0.003w     19 calls
| | X->Wmbej                        :      0.000u      0.000s      0.007w     19 calls
| Z                                 :      0.017u      0.000s      0.003w     19 calls
| T2 Build                          :      0.033u      0.050s      0.057w     19 calls
| | BT2                             :      0.017u      0.017s      0.028w     19 calls
| | | ABCD:new                      :      0.017u      0.017s      0.028w     19 calls
| | | | ABCD:S                      :      0.000u      0.000s      0.005w     19 calls
| | | | ABCD:A                      :      0.017u      0.000s      0.004w     19 calls
| | | | ABCD:axpy                   :      0.000u      0.017s      0.016w     19 calls
| | FT2                             :      0.000u      0.017s      0.003w     19 calls
| | WmbejT2                         :      0.000u      0.000s      0.009w     19 calls
| | CT2                             :      0.017u      0.017s      0.010w     19 calls
cctriples                           :      0.017u      0.000s      0.026w      1 calls
| ET_RHF                            :      0.017u      0.000s      0.017w      1 calls

**************************************************************************************

Host: localhost.localdomain

Timers On : Mon Feb 15 17:30:30 2021
Timers Off: Mon Feb 15 17:30:39 2021

Wall Time:        9.14 seconds

                                                       Time (seconds)
Module                                       User      System        Wall        Calls

--------------------------------------------------------------------------------------

**************************************************************************************

Host: localhost.localdomain

Timers On : Mon Feb 15 17:30:39 2021
Timers Off: Mon Feb 15 17:31:02 2021

Wall Time:       23.28 seconds

                                                       Time (seconds)
Module                                       User      System        Wall        Calls
DFH: sparsity prep                  :      0.017u      0.000s      0.013w      1 calls
DFH: initialize()                   :      0.050u      0.000s      0.031w      1 calls
DFH: AO Construction                :      0.017u      0.000s      0.001w      1 calls
DFH: AO-Met. Contraction            :      0.000u      0.000s      0.000w      1 calls
HF: Form core H                     :      0.000u      0.000s      0.000w      1 calls
HF: Form S/X                        :      0.000u      0.000s      0.000w      1 calls
HF: Guess                           :      0.167u      0.000s      0.107w      1 calls
SAD Guess                           :      0.167u      0.000s      0.101w      1 calls
HF: Form G                          :      0.017u      0.000s      0.016w    101 calls
JK: D                               :      0.000u      0.000s      0.001w    101 calls
JK: USO2AO                          :      0.000u      0.000s      0.000w    101 calls
JK: JK                              :      0.017u      0.000s      0.014w    101 calls
DFH: compute_JK()                   :      0.017u      0.000s      0.013w    101 calls
DFH: Grabbing AOs                   :      0.000u      0.000s      0.000w    101 calls
DFH: compute_J                      :      0.000u      0.000s      0.002w    101 calls
DFH: compute_K                      :      0.017u      0.000s      0.010w    101 calls
JK: AO2USO                          :      0.000u      0.000s      0.000w    101 calls
HF: Form F                          :      0.000u      0.000s      0.001w    101 calls
HF: Form D                          :      0.000u      0.000s      0.000w    101 calls
HF: DIIS                            :      0.067u      0.000s      0.041w    100 calls
DIISManager::add_entry              :      0.000u      0.000s      0.001w    100 calls
DIISManager::extrapolate            :      0.000u      0.000s      0.005w    100 calls
bMatrix setup                       :      0.000u      0.000s      0.001w    100 calls
bMatrix pseudoinverse               :      0.000u      0.000s      0.003w    100 calls
New vector                          :      0.000u      0.000s      0.001w    100 calls
HF: Form C                          :      0.017u      0.000s      0.006w    100 calls

--------------------------------------------------------------------------------------
DFH: sparsity prep                  :      0.017u      0.000s      0.013w      1 calls
DFH: initialize()                   :      0.050u      0.000s      0.031w      1 calls
| DFH: AO Construction              :      0.017u      0.000s      0.001w      1 calls
| DFH: AO-Met. Contraction          :      0.000u      0.000s      0.000w      1 calls
HF: Form core H                     :      0.000u      0.000s      0.000w      1 calls
HF: Form S/X                        :      0.000u      0.000s      0.000w      1 calls
HF: Guess                           :      0.167u      0.000s      0.107w      1 calls
| SAD Guess                         :      0.167u      0.000s      0.101w      1 calls
HF: Form G                          :      0.017u      0.000s      0.016w    101 calls
| JK: D                             :      0.000u      0.000s      0.001w    101 calls
| JK: USO2AO                        :      0.000u      0.000s      0.000w    101 calls
| JK: JK                            :      0.017u      0.000s      0.014w    101 calls
| | DFH: compute_JK()               :      0.017u      0.000s      0.013w    101 calls
| | | DFH: Grabbing AOs             :      0.000u      0.000s      0.000w    101 calls
| | | DFH: compute_J                :      0.000u      0.000s      0.002w    101 calls
| | | DFH: compute_K                :      0.017u      0.000s      0.010w    101 calls
| JK: AO2USO                        :      0.000u      0.000s      0.000w    101 calls
HF: Form F                          :      0.000u      0.000s      0.001w    101 calls
HF: Form D                          :      0.000u      0.000s      0.000w    101 calls
HF: DIIS                            :      0.067u      0.000s      0.041w    100 calls
| DIISManager::add_entry            :      0.000u      0.000s      0.001w    100 calls
| DIISManager::extrapolate          :      0.000u      0.000s      0.005w    100 calls
| | bMatrix setup                   :      0.000u      0.000s      0.001w    100 calls
| | bMatrix pseudoinverse           :      0.000u      0.000s      0.003w    100 calls
| | New vector                      :      0.000u      0.000s      0.001w    100 calls
HF: Form C                          :      0.017u      0.000s      0.006w    100 calls

**************************************************************************************

Host: localhost.localdomain

Timers On : Mon Feb 15 17:31:03 2021
Timers Off: Mon Feb 15 17:31:12 2021

Wall Time:        9.16 seconds

                                                       Time (seconds)
Module                                       User      System        Wall        Calls

--------------------------------------------------------------------------------------

**************************************************************************************

Host: localhost.localdomain

Timers On : Mon Feb 15 17:31:12 2021
Timers Off: Mon Feb 15 17:31:20 2021

Wall Time:        7.13 seconds

                                                       Time (seconds)
Module                                       User      System        Wall        Calls

--------------------------------------------------------------------------------------

**************************************************************************************

Host: localhost.localdomain

Timers On : Mon Feb 15 17:31:20 2021
Timers Off: Mon Feb 15 17:31:30 2021

Wall Time:       10.14 seconds

                                                       Time (seconds)
Module                                       User      System        Wall        Calls

--------------------------------------------------------------------------------------

**************************************************************************************

Host: localhost.localdomain

Timers On : Mon Feb 15 17:31:30 2021
Timers Off: Mon Feb 15 17:31:45 2021

Wall Time:       15.19 seconds

                                                       Time (seconds)
Module                                       User      System        Wall        Calls

--------------------------------------------------------------------------------------

**************************************************************************************

Host: localhost.localdomain

Timers On : Mon Feb 15 17:31:46 2021
Timers Off: Mon Feb 15 17:31:54 2021

Wall Time:        8.33 seconds

                                                       Time (seconds)
Module                                       User      System        Wall        Calls
DFH: sparsity prep                  :      0.017u      0.000s      0.016w      1 calls
DFH: initialize()                   :      0.067u      0.000s      0.038w      1 calls
DFH: AO Construction                :      0.000u      0.000s      0.004w      1 calls
DFH: AO-Met. Contraction            :      0.017u      0.000s      0.002w      1 calls
HF: Form core H                     :      0.000u      0.000s      0.000w      1 calls
HF: Form S/X                        :      0.000u      0.000s      0.000w      1 calls
HF: Guess                           :      0.200u      0.000s      0.123w      1 calls
SAD Guess                           :      0.200u      0.000s      0.117w      1 calls
HF: Form G                          :      0.100u      0.000s      0.052w    101 calls
JK: D                               :      0.000u      0.000s      0.001w    101 calls
JK: USO2AO                          :      0.000u      0.000s      0.000w    101 calls
JK: JK                              :      0.100u      0.000s      0.048w    101 calls
DFH: compute_JK()                   :      0.100u      0.000s      0.048w    101 calls
DFH: Grabbing AOs                   :      0.000u      0.000s      0.000w    101 calls
DFH: compute_J                      :      0.050u      0.000s      0.006w    101 calls
DFH: compute_K                      :      0.050u      0.000s      0.042w    101 calls
JK: AO2USO                          :      0.000u      0.000s      0.000w    101 calls
HF: Form F                          :      0.000u      0.000s      0.001w    101 calls
HF: Form D                          :      0.000u      0.000s      0.001w    101 calls
HF: DIIS                            :      0.050u      0.000s      0.047w    100 calls
DIISManager::add_entry              :      0.000u      0.000s      0.001w    100 calls
DIISManager::extrapolate            :      0.000u      0.000s      0.007w    100 calls
bMatrix setup                       :      0.000u      0.000s      0.001w    100 calls
bMatrix pseudoinverse               :      0.000u      0.000s      0.003w    100 calls
New vector                          :      0.000u      0.000s      0.002w    100 calls
HF: Form C                          :      0.033u      0.000s      0.023w    100 calls

--------------------------------------------------------------------------------------
DFH: sparsity prep                  :      0.017u      0.000s      0.016w      1 calls
DFH: initialize()                   :      0.067u      0.000s      0.038w      1 calls
| DFH: AO Construction              :      0.000u      0.000s      0.004w      1 calls
| DFH: AO-Met. Contraction          :      0.017u      0.000s      0.002w      1 calls
HF: Form core H                     :      0.000u      0.000s      0.000w      1 calls
HF: Form S/X                        :      0.000u      0.000s      0.000w      1 calls
HF: Guess                           :      0.200u      0.000s      0.123w      1 calls
| SAD Guess                         :      0.200u      0.000s      0.117w      1 calls
HF: Form G                          :      0.100u      0.000s      0.052w    101 calls
| JK: D                             :      0.000u      0.000s      0.001w    101 calls
| JK: USO2AO                        :      0.000u      0.000s      0.000w    101 calls
| JK: JK                            :      0.100u      0.000s      0.048w    101 calls
| | DFH: compute_JK()               :      0.100u      0.000s      0.048w    101 calls
| | | DFH: Grabbing AOs             :      0.000u      0.000s      0.000w    101 calls
| | | DFH: compute_J                :      0.050u      0.000s      0.006w    101 calls
| | | DFH: compute_K                :      0.050u      0.000s      0.042w    101 calls
| JK: AO2USO                        :      0.000u      0.000s      0.000w    101 calls
HF: Form F                          :      0.000u      0.000s      0.001w    101 calls
HF: Form D                          :      0.000u      0.000s      0.001w    101 calls
HF: DIIS                            :      0.050u      0.000s      0.047w    100 calls
| DIISManager::add_entry            :      0.000u      0.000s      0.001w    100 calls
| DIISManager::extrapolate          :      0.000u      0.000s      0.007w    100 calls
| | bMatrix setup                   :      0.000u      0.000s      0.001w    100 calls
| | bMatrix pseudoinverse           :      0.000u      0.000s      0.003w    100 calls
| | New vector                      :      0.000u      0.000s      0.002w    100 calls
HF: Form C                          :      0.033u      0.000s      0.023w    100 calls

**************************************************************************************

Host: localhost.localdomain

Timers On : Mon Feb 15 17:31:54 2021
Timers Off: Mon Feb 15 17:31:59 2021

Wall Time:        4.10 seconds

                                                       Time (seconds)
Module                                       User      System        Wall        Calls

--------------------------------------------------------------------------------------

**************************************************************************************

Host: localhost.localdomain

Timers On : Mon Feb 15 17:31:59 2021
Timers Off: Mon Feb 15 17:32:17 2021

Wall Time:       18.23 seconds

                                                       Time (seconds)
Module                                       User      System        Wall        Calls

--------------------------------------------------------------------------------------

**************************************************************************************

Host: localhost.localdomain

Timers On : Mon Feb 15 17:32:18 2021
Timers Off: Mon Feb 15 17:32:21 2021

Wall Time:        3.30 seconds

                                                       Time (seconds)
Module                                       User      System        Wall        Calls

--------------------------------------------------------------------------------------

**************************************************************************************

Host: localhost.localdomain

Timers On : Mon Feb 15 17:32:21 2021
Timers Off: Mon Feb 15 17:32:37 2021

Wall Time:       15.99 seconds

                                                       Time (seconds)
Module                                       User      System        Wall        Calls
DFH: sparsity prep                  :      0.033u      0.017s      0.025w      2 calls
DFH: initialize()                   :      0.117u      0.017s      0.062w      2 calls
DFH: AO Construction                :      0.000u      0.000s      0.004w      2 calls
DFH: AO-Met. Contraction            :      0.017u      0.000s      0.001w      2 calls
HF: Form core H                     :      0.000u      0.000s      0.001w      2 calls
HF: Form S/X                        :      0.000u      0.000s      0.000w      2 calls
HF: Guess                           :      0.350u      0.000s      0.214w      2 calls
SAD Guess                           :      0.333u      0.000s      0.202w      2 calls
HF: Form G                          :      0.200u      0.000s      0.122w    117 calls
JK: D                               :      0.000u      0.000s      0.001w    117 calls
JK: USO2AO                          :      0.000u      0.000s      0.000w    117 calls
JK: JK                              :      0.200u      0.000s      0.120w    117 calls
DFH: compute_JK()                   :      0.033u      0.000s      0.015w    111 calls
DFH: Grabbing AOs                   :      0.000u      0.000s      0.000w    111 calls
DFH: compute_J                      :      0.000u      0.000s      0.002w    111 calls
DFH: compute_K                      :      0.033u      0.000s      0.011w    111 calls
JK: AO2USO                          :      0.000u      0.000s      0.000w    117 calls
HF: Form F                          :      0.000u      0.000s      0.001w    117 calls
HF: Form D                          :      0.000u      0.000s      0.001w    117 calls
HF: DIIS                            :      0.117u      0.000s      0.047w    115 calls
DIISManager::add_entry              :      0.000u      0.000s      0.001w    115 calls
DIISManager::extrapolate            :      0.000u      0.000s      0.005w    115 calls
bMatrix setup                       :      0.000u      0.000s      0.001w    115 calls
bMatrix pseudoinverse               :      0.000u      0.000s      0.004w    115 calls
New vector                          :      0.000u      0.000s      0.001w    115 calls
HF: Form C                          :      0.000u      0.000s      0.007w    115 calls
ccenergy                            :      0.100u      0.133s      0.146w      1 calls
F build                             :      0.000u      0.000s      0.003w     11 calls
Wmbej build                         :      0.000u      0.000s      0.009w     11 calls
C->Wmbej                            :      0.000u      0.000s      0.000w     11 calls
F->Wmbej                            :      0.000u      0.000s      0.004w     11 calls
E->Wmbej                            :      0.000u      0.000s      0.001w     11 calls
X->Wmbej                            :      0.000u      0.000s      0.003w     11 calls
Z                                   :      0.000u      0.000s      0.001w     11 calls
T2 Build                            :      0.050u      0.017s      0.017w     11 calls
BT2                                 :      0.033u      0.017s      0.006w     11 calls
ABCD:new                            :      0.033u      0.017s      0.006w     11 calls
ABCD:S                              :      0.000u      0.000s      0.001w     11 calls
ABCD:A                              :      0.017u      0.000s      0.000w     11 calls
ABCD:axpy                           :      0.000u      0.017s      0.004w     11 calls
FT2                                 :      0.000u      0.000s      0.001w     11 calls
WmbejT2                             :      0.000u      0.000s      0.003w     11 calls
CT2                                 :      0.000u      0.000s      0.004w     11 calls
cctriples                           :      0.017u      0.017s      0.016w      1 calls
ET_RHF                              :      0.017u      0.017s      0.007w      1 calls

--------------------------------------------------------------------------------------
DFH: sparsity prep                  :      0.033u      0.017s      0.025w      2 calls
DFH: initialize()                   :      0.117u      0.017s      0.062w      2 calls
| DFH: AO Construction              :      0.000u      0.000s      0.004w      2 calls
| DFH: AO-Met. Contraction          :      0.017u      0.000s      0.001w      2 calls
HF: Form core H                     :      0.000u      0.000s      0.001w      2 calls
HF: Form S/X                        :      0.000u      0.000s      0.000w      2 calls
HF: Guess                           :      0.350u      0.000s      0.214w      2 calls
| SAD Guess                         :      0.333u      0.000s      0.202w      2 calls
HF: Form G                          :      0.200u      0.000s      0.122w    117 calls
| JK: D                             :      0.000u      0.000s      0.001w    117 calls
| JK: USO2AO                        :      0.000u      0.000s      0.000w    117 calls
| JK: JK                            :      0.200u      0.000s      0.120w    117 calls
| | DFH: compute_JK()               :      0.033u      0.000s      0.015w    111 calls
| | | DFH: Grabbing AOs             :      0.000u      0.000s      0.000w    111 calls
| | | DFH: compute_J                :      0.000u      0.000s      0.002w    111 calls
| | | DFH: compute_K                :      0.033u      0.000s      0.011w    111 calls
| JK: AO2USO                        :      0.000u      0.000s      0.000w    117 calls
HF: Form F                          :      0.000u      0.000s      0.001w    117 calls
HF: Form D                          :      0.000u      0.000s      0.001w    117 calls
HF: DIIS                            :      0.117u      0.000s      0.047w    115 calls
| DIISManager::add_entry            :      0.000u      0.000s      0.001w    115 calls
| DIISManager::extrapolate          :      0.000u      0.000s      0.005w    115 calls
| | bMatrix setup                   :      0.000u      0.000s      0.001w    115 calls
| | bMatrix pseudoinverse           :      0.000u      0.000s      0.004w    115 calls
| | New vector                      :      0.000u      0.000s      0.001w    115 calls
HF: Form C                          :      0.000u      0.000s      0.007w    115 calls
ccenergy                            :      0.100u      0.133s      0.146w      1 calls
| F build                           :      0.000u      0.000s      0.003w     11 calls
| Wmbej build                       :      0.000u      0.000s      0.009w     11 calls
| | C->Wmbej                        :      0.000u      0.000s      0.000w     11 calls
| | F->Wmbej                        :      0.000u      0.000s      0.004w     11 calls
| | E->Wmbej                        :      0.000u      0.000s      0.001w     11 calls
| | X->Wmbej                        :      0.000u      0.000s      0.003w     11 calls
| Z                                 :      0.000u      0.000s      0.001w     11 calls
| T2 Build                          :      0.050u      0.017s      0.017w     11 calls
| | BT2                             :      0.033u      0.017s      0.006w     11 calls
| | | ABCD:new                      :      0.033u      0.017s      0.006w     11 calls
| | | | ABCD:S                      :      0.000u      0.000s      0.001w     11 calls
| | | | ABCD:A                      :      0.017u      0.000s      0.000w     11 calls
| | | | ABCD:axpy                   :      0.000u      0.017s      0.004w     11 calls
| | FT2                             :      0.000u      0.000s      0.001w     11 calls
| | WmbejT2                         :      0.000u      0.000s      0.003w     11 calls
| | CT2                             :      0.000u      0.000s      0.004w     11 calls
cctriples                           :      0.017u      0.017s      0.016w      1 calls
| ET_RHF                            :      0.017u      0.017s      0.007w      1 calls

**************************************************************************************

Host: localhost.localdomain

Timers On : Mon Feb 15 17:32:38 2021
Timers Off: Mon Feb 15 17:33:56 2021

Wall Time:       78.85 seconds

                                                       Time (seconds)
Module                                       User      System        Wall        Calls
DFH: sparsity prep                  :      0.017u      0.000s      0.013w      1 calls
DFH: initialize()                   :      0.050u      0.000s      0.031w      1 calls
DFH: AO Construction                :      0.000u      0.000s      0.002w      1 calls
DFH: AO-Met. Contraction            :      0.000u      0.000s      0.000w      1 calls
HF: Form core H                     :      0.000u      0.000s      0.000w      1 calls
HF: Form S/X                        :      0.000u      0.000s      0.000w      1 calls
HF: Guess                           :      0.167u      0.000s      0.107w      1 calls
SAD Guess                           :      0.167u      0.000s      0.101w      1 calls
HF: Form G                          :      0.017u      0.000s      0.017w    101 calls
JK: D                               :      0.000u      0.000s      0.001w    101 calls
JK: USO2AO                          :      0.000u      0.000s      0.000w    101 calls
JK: JK                              :      0.017u      0.000s      0.015w    101 calls
DFH: compute_JK()                   :      0.017u      0.000s      0.015w    101 calls
DFH: Grabbing AOs                   :      0.000u      0.000s      0.000w    101 calls
DFH: compute_J                      :      0.000u      0.000s      0.002w    101 calls
DFH: compute_K                      :      0.017u      0.000s      0.012w    101 calls
JK: AO2USO                          :      0.000u      0.000s      0.000w    101 calls
HF: Form F                          :      0.000u      0.000s      0.001w    101 calls
HF: Form D                          :      0.000u      0.000s      0.000w    101 calls
HF: DIIS                            :      0.067u      0.000s      0.041w    100 calls
DIISManager::add_entry              :      0.000u      0.000s      0.001w    100 calls
DIISManager::extrapolate            :      0.017u      0.000s      0.005w    100 calls
bMatrix setup                       :      0.000u      0.000s      0.001w    100 calls
bMatrix pseudoinverse               :      0.000u      0.000s      0.003w    100 calls
New vector                          :      0.000u      0.000s      0.001w    100 calls
HF: Form C                          :      0.017u      0.000s      0.006w    100 calls

--------------------------------------------------------------------------------------
DFH: sparsity prep                  :      0.017u      0.000s      0.013w      1 calls
DFH: initialize()                   :      0.050u      0.000s      0.031w      1 calls
| DFH: AO Construction              :      0.000u      0.000s      0.002w      1 calls
| DFH: AO-Met. Contraction          :      0.000u      0.000s      0.000w      1 calls
HF: Form core H                     :      0.000u      0.000s      0.000w      1 calls
HF: Form S/X                        :      0.000u      0.000s      0.000w      1 calls
HF: Guess                           :      0.167u      0.000s      0.107w      1 calls
| SAD Guess                         :      0.167u      0.000s      0.101w      1 calls
HF: Form G                          :      0.017u      0.000s      0.017w    101 calls
| JK: D                             :      0.000u      0.000s      0.001w    101 calls
| JK: USO2AO                        :      0.000u      0.000s      0.000w    101 calls
| JK: JK                            :      0.017u      0.000s      0.015w    101 calls
| | DFH: compute_JK()               :      0.017u      0.000s      0.015w    101 calls
| | | DFH: Grabbing AOs             :      0.000u      0.000s      0.000w    101 calls
| | | DFH: compute_J                :      0.000u      0.000s      0.002w    101 calls
| | | DFH: compute_K                :      0.017u      0.000s      0.012w    101 calls
| JK: AO2USO                        :      0.000u      0.000s      0.000w    101 calls
HF: Form F                          :      0.000u      0.000s      0.001w    101 calls
HF: Form D                          :      0.000u      0.000s      0.000w    101 calls
HF: DIIS                            :      0.067u      0.000s      0.041w    100 calls
| DIISManager::add_entry            :      0.000u      0.000s      0.001w    100 calls
| DIISManager::extrapolate          :      0.017u      0.000s      0.005w    100 calls
| | bMatrix setup                   :      0.000u      0.000s      0.001w    100 calls
| | bMatrix pseudoinverse           :      0.000u      0.000s      0.003w    100 calls
| | New vector                      :      0.000u      0.000s      0.001w    100 calls
HF: Form C                          :      0.017u      0.000s      0.006w    100 calls

**************************************************************************************

Host: localhost.localdomain

Timers On : Mon Feb 15 17:33:57 2021
Timers Off: Mon Feb 15 17:34:48 2021

Wall Time:       51.55 seconds

                                                       Time (seconds)
Module                                       User      System        Wall        Calls

--------------------------------------------------------------------------------------

**************************************************************************************

Host: localhost.localdomain

Timers On : Mon Feb 15 17:38:58 2021
Timers Off: Mon Feb 15 17:40:56 2021

Wall Time:      118.31 seconds

                                                       Time (seconds)
Module                                       User      System        Wall        Calls
DFH: sparsity prep                  :      0.033u      0.000s      0.014w      1 calls
DFH: initialize()                   :      0.067u      0.000s      0.037w      1 calls
DFH: AO Construction                :      0.000u      0.000s      0.003w      1 calls
DFH: AO-Met. Contraction            :      0.000u      0.000s      0.001w      1 calls
HF: Form core H                     :      0.000u      0.000s      0.000w      1 calls
HF: Form S/X                        :      0.000u      0.000s      0.000w      1 calls
HF: Guess                           :      0.100u      0.000s      0.061w      1 calls
SAD Guess                           :      0.083u      0.000s      0.055w      1 calls
HF: Form G                          :      0.067u      0.000s      0.035w    101 calls
JK: D                               :      0.000u      0.000s      0.001w    101 calls
JK: USO2AO                          :      0.000u      0.000s      0.000w    101 calls
JK: JK                              :      0.067u      0.000s      0.032w    101 calls
DFH: compute_JK()                   :      0.067u      0.000s      0.032w    101 calls
DFH: Grabbing AOs                   :      0.000u      0.000s      0.000w    101 calls
DFH: compute_J                      :      0.017u      0.000s      0.003w    101 calls
DFH: compute_K                      :      0.050u      0.000s      0.028w    101 calls
JK: AO2USO                          :      0.000u      0.000s      0.000w    101 calls
HF: Form F                          :      0.000u      0.000s      0.001w    101 calls
HF: Form D                          :      0.017u      0.000s      0.000w    101 calls
HF: DIIS                            :      0.050u      0.000s      0.042w    100 calls
DIISManager::add_entry              :      0.000u      0.000s      0.001w    100 calls
DIISManager::extrapolate            :      0.000u      0.000s      0.005w    100 calls
bMatrix setup                       :      0.000u      0.000s      0.001w    100 calls
bMatrix pseudoinverse               :      0.000u      0.000s      0.003w    100 calls
New vector                          :      0.000u      0.000s      0.001w    100 calls
HF: Form C                          :      0.017u      0.000s      0.009w    100 calls

--------------------------------------------------------------------------------------
DFH: sparsity prep                  :      0.033u      0.000s      0.014w      1 calls
DFH: initialize()                   :      0.067u      0.000s      0.037w      1 calls
| DFH: AO Construction              :      0.000u      0.000s      0.003w      1 calls
| DFH: AO-Met. Contraction          :      0.000u      0.000s      0.001w      1 calls
HF: Form core H                     :      0.000u      0.000s      0.000w      1 calls
HF: Form S/X                        :      0.000u      0.000s      0.000w      1 calls
HF: Guess                           :      0.100u      0.000s      0.061w      1 calls
| SAD Guess                         :      0.083u      0.000s      0.055w      1 calls
HF: Form G                          :      0.067u      0.000s      0.035w    101 calls
| JK: D                             :      0.000u      0.000s      0.001w    101 calls
| JK: USO2AO                        :      0.000u      0.000s      0.000w    101 calls
| JK: JK                            :      0.067u      0.000s      0.032w    101 calls
| | DFH: compute_JK()               :      0.067u      0.000s      0.032w    101 calls
| | | DFH: Grabbing AOs             :      0.000u      0.000s      0.000w    101 calls
| | | DFH: compute_J                :      0.017u      0.000s      0.003w    101 calls
| | | DFH: compute_K                :      0.050u      0.000s      0.028w    101 calls
| JK: AO2USO                        :      0.000u      0.000s      0.000w    101 calls
HF: Form F                          :      0.000u      0.000s      0.001w    101 calls
HF: Form D                          :      0.017u      0.000s      0.000w    101 calls
HF: DIIS                            :      0.050u      0.000s      0.042w    100 calls
| DIISManager::add_entry            :      0.000u      0.000s      0.001w    100 calls
| DIISManager::extrapolate          :      0.000u      0.000s      0.005w    100 calls
| | bMatrix setup                   :      0.000u      0.000s      0.001w    100 calls
| | bMatrix pseudoinverse           :      0.000u      0.000s      0.003w    100 calls
| | New vector                      :      0.000u      0.000s      0.001w    100 calls
HF: Form C                          :      0.017u      0.000s      0.009w    100 calls

**************************************************************************************

Host: localhost.localdomain

Timers On : Mon Feb 15 17:40:56 2021
Timers Off: Mon Feb 15 17:41:43 2021

Wall Time:       46.51 seconds

                                                       Time (seconds)
Module                                       User      System        Wall        Calls
DFH: sparsity prep                  :      0.033u      0.000s      0.014w      1 calls
DFH: initialize()                   :      0.067u      0.000s      0.037w      1 calls
DFH: AO Construction                :      0.000u      0.000s      0.003w      1 calls
DFH: AO-Met. Contraction            :      0.000u      0.000s      0.001w      1 calls
HF: Form core H                     :      0.000u      0.000s      0.000w      1 calls
HF: Form S/X                        :      0.000u      0.000s      0.000w      1 calls
HF: Guess                           :      0.100u      0.000s      0.061w      1 calls
SAD Guess                           :      0.083u      0.000s      0.055w      1 calls
HF: Form G                          :      0.083u      0.000s      0.035w    101 calls
JK: D                               :      0.000u      0.000s      0.001w    101 calls
JK: USO2AO                          :      0.000u      0.000s      0.000w    101 calls
JK: JK                              :      0.083u      0.000s      0.032w    101 calls
DFH: compute_JK()                   :      0.083u      0.000s      0.032w    101 calls
DFH: Grabbing AOs                   :      0.000u      0.000s      0.000w    101 calls
DFH: compute_J                      :      0.017u      0.000s      0.003w    101 calls
DFH: compute_K                      :      0.067u      0.000s      0.028w    101 calls
JK: AO2USO                          :      0.000u      0.000s      0.000w    101 calls
HF: Form F                          :      0.000u      0.000s      0.001w    101 calls
HF: Form D                          :      0.000u      0.000s      0.000w    101 calls
HF: DIIS                            :      0.017u      0.000s      0.041w    100 calls
DIISManager::add_entry              :      0.000u      0.000s      0.001w    100 calls
DIISManager::extrapolate            :      0.000u      0.000s      0.005w    100 calls
bMatrix setup                       :      0.000u      0.000s      0.001w    100 calls
bMatrix pseudoinverse               :      0.000u      0.000s      0.003w    100 calls
New vector                          :      0.000u      0.000s      0.001w    100 calls
HF: Form C                          :      0.000u      0.000s      0.009w    100 calls

--------------------------------------------------------------------------------------
DFH: sparsity prep                  :      0.033u      0.000s      0.014w      1 calls
DFH: initialize()                   :      0.067u      0.000s      0.037w      1 calls
| DFH: AO Construction              :      0.000u      0.000s      0.003w      1 calls
| DFH: AO-Met. Contraction          :      0.000u      0.000s      0.001w      1 calls
HF: Form core H                     :      0.000u      0.000s      0.000w      1 calls
HF: Form S/X                        :      0.000u      0.000s      0.000w      1 calls
HF: Guess                           :      0.100u      0.000s      0.061w      1 calls
| SAD Guess                         :      0.083u      0.000s      0.055w      1 calls
HF: Form G                          :      0.083u      0.000s      0.035w    101 calls
| JK: D                             :      0.000u      0.000s      0.001w    101 calls
| JK: USO2AO                        :      0.000u      0.000s      0.000w    101 calls
| JK: JK                            :      0.083u      0.000s      0.032w    101 calls
| | DFH: compute_JK()               :      0.083u      0.000s      0.032w    101 calls
| | | DFH: Grabbing AOs             :      0.000u      0.000s      0.000w    101 calls
| | | DFH: compute_J                :      0.017u      0.000s      0.003w    101 calls
| | | DFH: compute_K                :      0.067u      0.000s      0.028w    101 calls
| JK: AO2USO                        :      0.000u      0.000s      0.000w    101 calls
HF: Form F                          :      0.000u      0.000s      0.001w    101 calls
HF: Form D                          :      0.000u      0.000s      0.000w    101 calls
HF: DIIS                            :      0.017u      0.000s      0.041w    100 calls
| DIISManager::add_entry            :      0.000u      0.000s      0.001w    100 calls
| DIISManager::extrapolate          :      0.000u      0.000s      0.005w    100 calls
| | bMatrix setup                   :      0.000u      0.000s      0.001w    100 calls
| | bMatrix pseudoinverse           :      0.000u      0.000s      0.003w    100 calls
| | New vector                      :      0.000u      0.000s      0.001w    100 calls
HF: Form C                          :      0.000u      0.000s      0.009w    100 calls

**************************************************************************************

Host: localhost.localdomain

Timers On : Mon Feb 15 17:42:30 2021
Timers Off: Mon Feb 15 17:42:33 2021

Wall Time:        2.08 seconds

                                                       Time (seconds)
Module                                       User      System        Wall        Calls

--------------------------------------------------------------------------------------

**************************************************************************************

Host: localhost.localdomain

Timers On : Mon Feb 15 17:42:33 2021
Timers Off: Mon Feb 15 17:44:09 2021

Wall Time:       96.31 seconds

                                                       Time (seconds)
Module                                       User      System        Wall        Calls
DFH: sparsity prep                  :      0.033u      0.000s      0.014w      1 calls
DFH: initialize()                   :      0.067u      0.000s      0.037w      1 calls
DFH: AO Construction                :      0.000u      0.000s      0.003w      1 calls
DFH: AO-Met. Contraction            :      0.000u      0.000s      0.001w      1 calls
HF: Form core H                     :      0.000u      0.000s      0.000w      1 calls
HF: Form S/X                        :      0.000u      0.000s      0.000w      1 calls
HF: Guess                           :      0.100u      0.000s      0.061w      1 calls
SAD Guess                           :      0.083u      0.000s      0.055w      1 calls
HF: Form G                          :      0.067u      0.017s      0.035w    101 calls
JK: D                               :      0.017u      0.000s      0.001w    101 calls
JK: USO2AO                          :      0.000u      0.000s      0.000w    101 calls
JK: JK                              :      0.033u      0.017s      0.032w    101 calls
DFH: compute_JK()                   :      0.033u      0.017s      0.031w    101 calls
DFH: Grabbing AOs                   :      0.000u      0.000s      0.000w    101 calls
DFH: compute_J                      :      0.000u      0.017s      0.003w    101 calls
DFH: compute_K                      :      0.033u      0.000s      0.028w    101 calls
JK: AO2USO                          :      0.000u      0.000s      0.000w    101 calls
HF: Form F                          :      0.000u      0.000s      0.001w    101 calls
HF: Form D                          :      0.000u      0.000s      0.000w    101 calls
HF: DIIS                            :      0.033u      0.000s      0.041w    100 calls
DIISManager::add_entry              :      0.000u      0.000s      0.001w    100 calls
DIISManager::extrapolate            :      0.017u      0.000s      0.005w    100 calls
bMatrix setup                       :      0.000u      0.000s      0.001w    100 calls
bMatrix pseudoinverse               :      0.000u      0.000s      0.003w    100 calls
New vector                          :      0.017u      0.000s      0.001w    100 calls
HF: Form C                          :      0.017u      0.000s      0.009w    100 calls

--------------------------------------------------------------------------------------
DFH: sparsity prep                  :      0.033u      0.000s      0.014w      1 calls
DFH: initialize()                   :      0.067u      0.000s      0.037w      1 calls
| DFH: AO Construction              :      0.000u      0.000s      0.003w      1 calls
| DFH: AO-Met. Contraction          :      0.000u      0.000s      0.001w      1 calls
HF: Form core H                     :      0.000u      0.000s      0.000w      1 calls
HF: Form S/X                        :      0.000u      0.000s      0.000w      1 calls
HF: Guess                           :      0.100u      0.000s      0.061w      1 calls
| SAD Guess                         :      0.083u      0.000s      0.055w      1 calls
HF: Form G                          :      0.067u      0.017s      0.035w    101 calls
| JK: D                             :      0.017u      0.000s      0.001w    101 calls
| JK: USO2AO                        :      0.000u      0.000s      0.000w    101 calls
| JK: JK                            :      0.033u      0.017s      0.032w    101 calls
| | DFH: compute_JK()               :      0.033u      0.017s      0.031w    101 calls
| | | DFH: Grabbing AOs             :      0.000u      0.000s      0.000w    101 calls
| | | DFH: compute_J                :      0.000u      0.017s      0.003w    101 calls
| | | DFH: compute_K                :      0.033u      0.000s      0.028w    101 calls
| JK: AO2USO                        :      0.000u      0.000s      0.000w    101 calls
HF: Form F                          :      0.000u      0.000s      0.001w    101 calls
HF: Form D                          :      0.000u      0.000s      0.000w    101 calls
HF: DIIS                            :      0.033u      0.000s      0.041w    100 calls
| DIISManager::add_entry            :      0.000u      0.000s      0.001w    100 calls
| DIISManager::extrapolate          :      0.017u      0.000s      0.005w    100 calls
| | bMatrix setup                   :      0.000u      0.000s      0.001w    100 calls
| | bMatrix pseudoinverse           :      0.000u      0.000s      0.003w    100 calls
| | New vector                      :      0.017u      0.000s      0.001w    100 calls
HF: Form C                          :      0.017u      0.000s      0.009w    100 calls

**************************************************************************************

Host: localhost.localdomain

Timers On : Mon Feb 15 17:44:10 2021
Timers Off: Mon Feb 15 17:44:34 2021

Wall Time:       24.64 seconds

                                                       Time (seconds)
Module                                       User      System        Wall        Calls
DFH: sparsity prep                  :      0.017u      0.000s      0.015w      1 calls
DFH: initialize()                   :      0.083u      0.000s      0.049w      1 calls
DFH: AO Construction                :      0.017u      0.000s      0.009w      1 calls
DFH: AO-Met. Contraction            :      0.017u      0.000s      0.004w      1 calls
HF: Form core H                     :      0.000u      0.000s      0.000w      1 calls
HF: Form S/X                        :      0.000u      0.000s      0.000w      1 calls
HF: Guess                           :      0.100u      0.000s      0.063w      1 calls
SAD Guess                           :      0.100u      0.000s      0.057w      1 calls
HF: Form G                          :      0.150u      0.000s      0.095w      8 calls
JK: D                               :      0.000u      0.000s      0.000w     23 calls
JK: USO2AO                          :      0.000u      0.000s      0.000w     23 calls
JK: JK                              :      0.567u      0.017s      0.341w     23 calls
DFH: compute_JK()                   :      0.033u      0.000s      0.024w     16 calls
DFH: Grabbing AOs                   :      0.000u      0.000s      0.000w     16 calls
DFH: compute_J                      :      0.000u      0.000s      0.002w     16 calls
DFH: compute_K                      :      0.033u      0.000s      0.022w     16 calls
JK: AO2USO                          :      0.000u      0.000s      0.000w     23 calls
HF: Form F                          :      0.000u      0.000s      0.000w      8 calls
HF: Form D                          :      0.000u      0.000s      0.000w      8 calls
HF: DIIS                            :      0.017u      0.000s      0.001w      2 calls
DIISManager::add_entry              :      0.000u      0.000s      0.000w      2 calls
DIISManager::extrapolate            :      0.000u      0.000s      0.000w      2 calls
bMatrix setup                       :      0.000u      0.000s      0.000w      2 calls
bMatrix pseudoinverse               :      0.000u      0.000s      0.000w      2 calls
New vector                          :      0.000u      0.000s      0.000w      2 calls
HF: Form C                          :      0.000u      0.000s      0.001w      4 calls
ccenergy                            :      3.567u      1.550s      3.098w      1 calls
F build                             :      0.250u      0.050s      0.172w     36 calls
Wmbej build                         :      0.917u      0.267s      0.696w     36 calls
C->Wmbej                            :      0.017u      0.033s      0.027w     36 calls
F->Wmbej                            :      0.167u      0.133s      0.167w     36 calls
E->Wmbej                            :      0.100u      0.083s      0.080w     36 calls
X->Wmbej                            :      0.633u      0.000s      0.402w     36 calls
Z                                   :      0.233u      0.033s      0.146w     36 calls
T2 Build                            :      1.417u      0.667s      1.240w     36 calls
BT2                                 :      0.483u      0.150s      0.376w     36 calls
ABCD:new                            :      0.483u      0.150s      0.376w     36 calls
ABCD:S                              :      0.133u      0.033s      0.114w     36 calls
ABCD:A                              :      0.167u      0.017s      0.107w     36 calls
ABCD:axpy                           :      0.150u      0.083s      0.109w     36 calls
FT2                                 :      0.017u      0.017s      0.057w     36 calls
WmbejT2                             :      0.433u      0.200s      0.359w     36 calls
CT2                                 :      0.233u      0.167s      0.238w     36 calls
cctriples                           :      0.983u      0.083s      0.638w      1 calls
ET_RHF                              :      0.983u      0.067s      0.629w      1 calls

--------------------------------------------------------------------------------------
DFH: sparsity prep                  :      0.017u      0.000s      0.015w      1 calls
DFH: initialize()                   :      0.083u      0.000s      0.049w      1 calls
| DFH: AO Construction              :      0.017u      0.000s      0.009w      1 calls
| DFH: AO-Met. Contraction          :      0.017u      0.000s      0.004w      1 calls
HF: Form core H                     :      0.000u      0.000s      0.000w      1 calls
HF: Form S/X                        :      0.000u      0.000s      0.000w      1 calls
HF: Guess                           :      0.100u      0.000s      0.063w      1 calls
| SAD Guess                         :      0.100u      0.000s      0.057w      1 calls
HF: Form G                          :      0.150u      0.000s      0.095w      8 calls
| JK: D                             :      0.000u      0.000s      0.000w      8 calls
| JK: USO2AO                        :      0.000u      0.000s      0.000w      8 calls
| JK: JK                            :      0.150u      0.000s      0.094w      8 calls
| | DFH: compute_JK()               :      0.000u      0.000s      0.007w      6 calls
| | | DFH: Grabbing AOs             :      0.000u      0.000s      0.000w      6 calls
| | | DFH: compute_J                :      0.000u      0.000s      0.001w      6 calls
| | | DFH: compute_K                :      0.000u      0.000s      0.006w      6 calls
| JK: AO2USO                        :      0.000u      0.000s      0.000w      8 calls
HF: Form F                          :      0.000u      0.000s      0.000w      8 calls
HF: Form D                          :      0.000u      0.000s      0.000w      8 calls
HF: DIIS                            :      0.017u      0.000s      0.001w      2 calls
| DIISManager::add_entry            :      0.000u      0.000s      0.000w      2 calls
| DIISManager::extrapolate          :      0.000u      0.000s      0.000w      2 calls
| | bMatrix setup                   :      0.000u      0.000s      0.000w      2 calls
| | bMatrix pseudoinverse           :      0.000u      0.000s      0.000w      2 calls
| | New vector                      :      0.000u      0.000s      0.000w      2 calls
HF: Form C                          :      0.000u      0.000s      0.001w      4 calls
JK: D                               :      0.000u      0.000s      0.000w     15 calls
JK: USO2AO                          :      0.000u      0.000s      0.000w     15 calls
JK: JK                              :      0.417u      0.017s      0.246w     15 calls
| DFH: compute_JK()                 :      0.033u      0.000s      0.017w     10 calls
| | DFH: Grabbing AOs               :      0.000u      0.000s      0.000w     10 calls
| | DFH: compute_J                  :      0.000u      0.000s      0.001w     10 calls
| | DFH: compute_K                  :      0.033u      0.000s      0.016w     10 calls
JK: AO2USO                          :      0.000u      0.000s      0.000w     15 calls
ccenergy                            :      3.567u      1.550s      3.098w      1 calls
| F build                           :      0.250u      0.050s      0.172w     36 calls
| Wmbej build                       :      0.917u      0.267s      0.696w     36 calls
| | C->Wmbej                        :      0.017u      0.033s      0.027w     36 calls
| | F->Wmbej                        :      0.167u      0.133s      0.167w     36 calls
| | E->Wmbej                        :      0.100u      0.083s      0.080w     36 calls
| | X->Wmbej                        :      0.633u      0.000s      0.402w     36 calls
| Z                                 :      0.233u      0.033s      0.146w     36 calls
| T2 Build                          :      1.417u      0.667s      1.240w     36 calls
| | BT2                             :      0.483u      0.150s      0.376w     36 calls
| | | ABCD:new                      :      0.483u      0.150s      0.376w     36 calls
| | | | ABCD:S                      :      0.133u      0.033s      0.114w     36 calls
| | | | ABCD:A                      :      0.167u      0.017s      0.107w     36 calls
| | | | ABCD:axpy                   :      0.150u      0.083s      0.109w     36 calls
| | FT2                             :      0.017u      0.017s      0.057w     36 calls
| | WmbejT2                         :      0.433u      0.200s      0.359w     36 calls
| | CT2                             :      0.233u      0.167s      0.238w     36 calls
cctriples                           :      0.983u      0.083s      0.638w      1 calls
| ET_RHF                            :      0.983u      0.067s      0.629w      1 calls

**************************************************************************************

Host: localhost.localdomain

Timers On : Mon Feb 15 17:45:27 2021
Timers Off: Mon Feb 15 17:46:49 2021

Wall Time:       81.82 seconds

                                                       Time (seconds)
Module                                       User      System        Wall        Calls
DFH: sparsity prep                  :      0.033u      0.000s      0.018w      1 calls
DFH: initialize()                   :      0.083u      0.000s      0.051w      1 calls
DFH: AO Construction                :      0.017u      0.000s      0.009w      1 calls
DFH: AO-Met. Contraction            :      0.000u      0.000s      0.005w      1 calls
HF: Form core H                     :      0.000u      0.000s      0.001w      1 calls
HF: Form S/X                        :      0.000u      0.000s      0.001w      1 calls
HF: Guess                           :      0.117u      0.000s      0.072w      1 calls
SAD Guess                           :      0.100u      0.000s      0.066w      1 calls
HF: Form G                          :      0.217u      0.000s      0.127w      9 calls
JK: D                               :      0.000u      0.000s      0.000w     24 calls
JK: USO2AO                          :      0.000u      0.000s      0.000w     24 calls
JK: JK                              :      0.767u      0.000s      0.454w     24 calls
DFH: compute_JK()                   :      0.050u      0.000s      0.030w     17 calls
DFH: Grabbing AOs                   :      0.000u      0.000s      0.000w     17 calls
DFH: compute_J                      :      0.000u      0.000s      0.002w     17 calls
DFH: compute_K                      :      0.050u      0.000s      0.027w     17 calls
JK: AO2USO                          :      0.000u      0.000s      0.000w     24 calls
HF: Form F                          :      0.000u      0.000s      0.000w      9 calls
HF: Form D                          :      0.000u      0.000s      0.000w      9 calls
HF: DIIS                            :      0.000u      0.000s      0.001w      3 calls
DIISManager::add_entry              :      0.000u      0.000s      0.000w      3 calls
DIISManager::extrapolate            :      0.000u      0.000s      0.000w      3 calls
bMatrix setup                       :      0.000u      0.000s      0.000w      3 calls
bMatrix pseudoinverse               :      0.000u      0.000s      0.000w      3 calls
New vector                          :      0.000u      0.000s      0.000w      3 calls
HF: Form C                          :      0.000u      0.000s      0.002w      5 calls
ccenergy                            :      8.617u      3.150s      7.084w      1 calls
F build                             :      0.550u      0.133s      0.399w     37 calls
Wmbej build                         :      2.267u      0.550s      1.660w     37 calls
C->Wmbej                            :      0.017u      0.050s      0.048w     37 calls
F->Wmbej                            :      0.350u      0.267s      0.415w     37 calls
E->Wmbej                            :      0.133u      0.183s      0.157w     37 calls
X->Wmbej                            :      1.750u      0.033s      1.004w     37 calls
Z                                   :      0.583u      0.083s      0.421w     37 calls
T2 Build                            :      3.767u      1.550s      3.169w     37 calls
BT2                                 :      1.467u      0.583s      1.283w     37 calls
ABCD:new                            :      1.467u      0.583s      1.283w     37 calls
ABCD:S                              :      0.667u      0.267s      0.494w     37 calls
ABCD:A                              :      0.667u      0.183s      0.485w     37 calls
ABCD:axpy                           :      0.100u      0.083s      0.208w     37 calls
FT2                                 :      0.133u      0.067s      0.135w     37 calls
WmbejT2                             :      1.100u      0.317s      0.844w     37 calls
CT2                                 :      0.433u      0.400s      0.475w     37 calls
cctriples                           :      3.000u      0.167s      1.907w      1 calls
ET_RHF                              :      2.983u      0.167s      1.897w      1 calls

--------------------------------------------------------------------------------------
DFH: sparsity prep                  :      0.033u      0.000s      0.018w      1 calls
DFH: initialize()                   :      0.083u      0.000s      0.051w      1 calls
| DFH: AO Construction              :      0.017u      0.000s      0.009w      1 calls
| DFH: AO-Met. Contraction          :      0.000u      0.000s      0.005w      1 calls
HF: Form core H                     :      0.000u      0.000s      0.001w      1 calls
HF: Form S/X                        :      0.000u      0.000s      0.001w      1 calls
HF: Guess                           :      0.117u      0.000s      0.072w      1 calls
| SAD Guess                         :      0.100u      0.000s      0.066w      1 calls
HF: Form G                          :      0.217u      0.000s      0.127w      9 calls
| JK: D                             :      0.000u      0.000s      0.000w      9 calls
| JK: USO2AO                        :      0.000u      0.000s      0.000w      9 calls
[...]

--------------------------------------------------------------------------------------

**************************************************************************************

Host: localhost.localdomain

Timers On : Tue Feb 23 04:08:34 2021
Timers Off: Tue Feb 23 04:08:44 2021

Wall Time:       10.15 seconds

                                                       Time (seconds)
Module                                       User      System        Wall        Calls

--------------------------------------------------------------------------------------

**************************************************************************************

Host: localhost.localdomain

Timers On : Tue Feb 23 04:08:45 2021
Timers Off: Tue Feb 23 04:09:02 2021

Wall Time:       17.22 seconds

                                                       Time (seconds)
Module                                       User      System        Wall        Calls

--------------------------------------------------------------------------------------

**************************************************************************************

Host: localhost.localdomain

Timers On : Tue Feb 23 04:12:20 2021
Timers Off: Tue Feb 23 04:12:23 2021

Wall Time:        3.09 seconds

                                                       Time (seconds)
Module                                       User      System        Wall        Calls

--------------------------------------------------------------------------------------

**************************************************************************************

Host: localhost.localdomain

Timers On : Tue Feb 23 04:12:23 2021
Timers Off: Tue Feb 23 04:12:36 2021

Wall Time:       12.17 seconds

                                                       Time (seconds)
Module                                       User      System        Wall        Calls

--------------------------------------------------------------------------------------

**************************************************************************************

Host: localhost.localdomain

Timers On : Tue Feb 23 04:12:36 2021
Timers Off: Tue Feb 23 04:12:57 2021

Wall Time:       21.28 seconds

                                                       Time (seconds)
Module                                       User      System        Wall        Calls

--------------------------------------------------------------------------------------

**************************************************************************************

Host: localhost.localdomain

Timers On : Tue Feb 23 04:15:17 2021
Timers Off: Tue Feb 23 04:15:20 2021

Wall Time:        3.08 seconds

                                                       Time (seconds)
Module                                       User      System        Wall        Calls

--------------------------------------------------------------------------------------

**************************************************************************************

Host: localhost.localdomain

Timers On : Tue Feb 23 04:16:08 2021
Timers Off: Tue Feb 23 04:16:27 2021

Wall Time:       19.21 seconds

                                                       Time (seconds)
Module                                       User      System        Wall        Calls

--------------------------------------------------------------------------------------

**************************************************************************************

Host: localhost.localdomain

Timers On : Tue Feb 23 04:16:28 2021
Timers Off: Tue Feb 23 04:16:32 2021

Wall Time:        4.09 seconds

                                                       Time (seconds)
Module                                       User      System        Wall        Calls

--------------------------------------------------------------------------------------

**************************************************************************************

Host: localhost.localdomain

Timers On : Tue Feb 23 04:17:23 2021
Timers Off: Tue Feb 23 04:18:03 2021

Wall Time:       40.40 seconds

                                                       Time (seconds)
Module                                       User      System        Wall        Calls

--------------------------------------------------------------------------------------

**************************************************************************************

Host: localhost.localdomain

Timers On : Tue Feb 23 04:18:04 2021
Timers Off: Tue Feb 23 04:18:09 2021

Wall Time:        5.09 seconds

                                                       Time (seconds)
Module                                       User      System        Wall        Calls

--------------------------------------------------------------------------------------

**************************************************************************************

Host: localhost.localdomain

Timers On : Tue Feb 23 14:25:50 2021
Timers Off: Tue Feb 23 14:26:04 2021

Wall Time:       14.21 seconds

                                                       Time (seconds)
Module                                       User      System        Wall        Calls

--------------------------------------------------------------------------------------

**************************************************************************************

Host: localhost.localdomain

Timers On : Tue Feb 23 14:26:05 2021
Timers Off: Tue Feb 23 14:27:09 2021

Wall Time:       64.64 seconds

                                                       Time (seconds)
Module                                       User      System        Wall        Calls

--------------------------------------------------------------------------------------

**************************************************************************************

Host: localhost.localdomain

Timers On : Tue Feb 23 14:27:10 2021
Timers Off: Tue Feb 23 14:27:24 2021

Wall Time:       14.20 seconds

                                                       Time (seconds)
Module                                       User      System        Wall        Calls

--------------------------------------------------------------------------------------

**************************************************************************************

Host: localhost.localdomain

Timers On : Tue Feb 23 14:27:48 2021
Timers Off: Tue Feb 23 14:28:25 2021

Wall Time:       37.34 seconds

                                                       Time (seconds)
Module                                       User      System        Wall        Calls

--------------------------------------------------------------------------------------

**************************************************************************************

Host: localhost.localdomain

Timers On : Tue Feb 23 14:28:56 2021
Timers Off: Tue Feb 23 14:30:44 2021

Wall Time:      107.91 seconds

                                                       Time (seconds)
Module                                       User      System        Wall        Calls

--------------------------------------------------------------------------------------

**************************************************************************************

Host: localhost.localdomain

Timers On : Tue Feb 23 14:31:03 2021
Timers Off: Tue Feb 23 14:31:05 2021

Wall Time:        2.08 seconds

                                                       Time (seconds)
Module                                       User      System        Wall        Calls

--------------------------------------------------------------------------------------

**************************************************************************************

Host: localhost.localdomain

Timers On : Tue Feb 23 14:31:05 2021
Timers Off: Tue Feb 23 14:31:09 2021

Wall Time:        3.08 seconds

                                                       Time (seconds)
Module                                       User      System        Wall        Calls

--------------------------------------------------------------------------------------

**************************************************************************************

Host: localhost.localdomain

Timers On : Tue Feb 23 14:31:33 2021
Timers Off: Tue Feb 23 14:31:52 2021

Wall Time:       18.17 seconds

                                                       Time (seconds)
Module                                       User      System        Wall        Calls

--------------------------------------------------------------------------------------

**************************************************************************************

Host: localhost.localdomain

Timers On : Tue Feb 23 14:32:11 2021
Timers Off: Tue Feb 23 14:32:17 2021

Wall Time:        6.09 seconds

                                                       Time (seconds)
Module                                       User      System        Wall        Calls

--------------------------------------------------------------------------------------

**************************************************************************************

Host: localhost.localdomain

Timers On : Tue Feb 23 14:34:16 2021
Timers Off: Tue Feb 23 14:34:18 2021

Wall Time:        2.06 seconds

                                                       Time (seconds)
Module                                       User      System        Wall        Calls

--------------------------------------------------------------------------------------

**************************************************************************************

Host: localhost.localdomain

Timers On : Tue Feb 23 14:34:57 2021
Timers Off: Tue Feb 23 14:35:12 2021

Wall Time:       15.15 seconds

                                                       Time (seconds)
Module                                       User      System        Wall        Calls

--------------------------------------------------------------------------------------

**************************************************************************************

Host: localhost.localdomain

Timers On : Tue Feb 23 14:38:19 2021
Timers Off: Tue Feb 23 14:38:36 2021

Wall Time:       17.17 seconds

                                                       Time (seconds)
Module                                       User      System        Wall        Calls

--------------------------------------------------------------------------------------

**************************************************************************************

Host: localhost.localdomain

Timers On : Tue Feb 23 14:38:37 2021
Timers Off: Tue Feb 23 14:38:43 2021

Wall Time:        6.10 seconds

                                                       Time (seconds)
Module                                       User      System        Wall        Calls

--------------------------------------------------------------------------------------

**************************************************************************************

Host: localhost.localdomain

Timers On : Tue Feb 23 14:40:07 2021
Timers Off: Tue Feb 23 14:40:17 2021

Wall Time:       10.15 seconds

                                                       Time (seconds)
Module                                       User      System        Wall        Calls

--------------------------------------------------------------------------------------

**************************************************************************************

Host: localhost.localdomain

Timers On : Tue Feb 23 14:40:17 2021
Timers Off: Tue Feb 23 14:40:21 2021

Wall Time:        4.10 seconds

                                                       Time (seconds)
Module                                       User      System        Wall        Calls

--------------------------------------------------------------------------------------

**************************************************************************************

Host: localhost.localdomain

Timers On : Tue Feb 23 14:40:22 2021
Timers Off: Tue Feb 23 14:40:27 2021

Wall Time:        5.10 seconds

                                                       Time (seconds)
Module                                       User      System        Wall        Calls

--------------------------------------------------------------------------------------

**************************************************************************************

Host: localhost.localdomain

Timers On : Tue Feb 23 14:40:27 2021
Timers Off: Tue Feb 23 14:40:37 2021

Wall Time:       10.16 seconds

                                                       Time (seconds)
Module                                       User      System        Wall        Calls

--------------------------------------------------------------------------------------

**************************************************************************************

Host: localhost.localdomain

Timers On : Tue Feb 23 14:40:37 2021
Timers Off: Tue Feb 23 14:40:39 2021

Wall Time:        1.06 seconds

                                                       Time (seconds)
Module                                       User      System        Wall        Calls

--------------------------------------------------------------------------------------

**************************************************************************************

Host: localhost.localdomain

Timers On : Tue Feb 23 14:41:09 2021
Timers Off: Tue Feb 23 14:41:30 2021

Wall Time:       21.27 seconds

                                                       Time (seconds)
Module                                       User      System        Wall        Calls

--------------------------------------------------------------------------------------

**************************************************************************************

Host: localhost.localdomain

Timers On : Tue Feb 23 14:41:57 2021
Timers Off: Tue Feb 23 14:42:04 2021

Wall Time:        7.12 seconds

                                                       Time (seconds)
Module                                       User      System        Wall        Calls

--------------------------------------------------------------------------------------

**************************************************************************************

Host: localhost.localdomain

Timers On : Tue Feb 23 14:42:04 2021
Timers Off: Tue Feb 23 14:42:17 2021

Wall Time:       13.17 seconds

                                                       Time (seconds)
Module                                       User      System        Wall        Calls

--------------------------------------------------------------------------------------

**************************************************************************************

Host: localhost.localdomain

Timers On : Tue Feb 23 14:42:33 2021
Timers Off: Tue Feb 23 14:42:35 2021

Wall Time:        2.08 seconds

                                                       Time (seconds)
Module                                       User      System        Wall        Calls

--------------------------------------------------------------------------------------

**************************************************************************************

Host: localhost.localdomain

Timers On : Tue Feb 23 14:42:36 2021
Timers Off: Tue Feb 23 14:42:42 2021

Wall Time:        6.11 seconds

                                                       Time (seconds)
Module                                       User      System        Wall        Calls

--------------------------------------------------------------------------------------

**************************************************************************************

Host: localhost.localdomain

Timers On : Tue Feb 23 14:42:42 2021
Timers Off: Tue Feb 23 14:42:57 2021

Wall Time:       15.21 seconds

                                                       Time (seconds)
Module                                       User      System        Wall        Calls

--------------------------------------------------------------------------------------

**************************************************************************************

Host: localhost.localdomain

Timers On : Tue Feb 23 14:42:58 2021
Timers Off: Tue Feb 23 14:43:01 2021

Wall Time:        3.07 seconds

                                                       Time (seconds)
Module                                       User      System        Wall        Calls

--------------------------------------------------------------------------------------

**************************************************************************************

Host: localhost.localdomain

Timers On : Tue Feb 23 14:44:24 2021
Timers Off: Tue Feb 23 14:44:38 2021

Wall Time:       14.19 seconds

                                                       Time (seconds)
Module                                       User      System        Wall        Calls

--------------------------------------------------------------------------------------

**************************************************************************************

Host: localhost.localdomain

Timers On : Tue Feb 23 14:44:39 2021
Timers Off: Tue Feb 23 14:44:40 2021

Wall Time:        1.06 seconds

                                                       Time (seconds)
Module                                       User      System        Wall        Calls

--------------------------------------------------------------------------------------

**************************************************************************************

Host: localhost.localdomain

Timers On : Tue Feb 23 14:44:40 2021
Timers Off: Tue Feb 23 14:44:42 2021

Wall Time:        2.07 seconds

                                                       Time (seconds)
Module                                       User      System        Wall        Calls

--------------------------------------------------------------------------------------

**************************************************************************************

Host: localhost.localdomain

Timers On : Tue Feb 23 14:49:48 2021
Timers Off: Tue Feb 23 14:50:00 2021

Wall Time:       12.17 seconds

                                                       Time (seconds)
Module                                       User      System        Wall        Calls

--------------------------------------------------------------------------------------

**************************************************************************************

Host: localhost.localdomain

Timers On : Tue Feb 23 14:50:01 2021
Timers Off: Tue Feb 23 14:50:03 2021

Wall Time:        2.08 seconds

                                                       Time (seconds)
Module                                       User      System        Wall        Calls

--------------------------------------------------------------------------------------

**************************************************************************************

Host: localhost.localdomain

Timers On : Tue Feb 23 14:50:03 2021
Timers Off: Tue Feb 23 14:50:18 2021

Wall Time:       15.14 seconds

                                                       Time (seconds)
Module                                       User      System        Wall        Calls

--------------------------------------------------------------------------------------

**************************************************************************************

Host: localhost.localdomain

Timers On : Tue Feb 23 14:50:43 2021
Timers Off: Tue Feb 23 14:50:51 2021

Wall Time:        8.13 seconds

                                                       Time (seconds)
Module                                       User      System        Wall        Calls

--------------------------------------------------------------------------------------

**************************************************************************************
